# Region      : all 
# Cells       : 1
# Volume      : 2.500000e+01
# Time        	max(psi4)	max(psi5)	max(psi6)	max(psi7)	max(psi77)	max(psi777)	max(psi8)	max(psiIN)	max(T)	max(Xc)	max(XH2)	max(X1)	max(X2)	max(X3)	max(X4)	max(X5)	max(X6)	max(X7)	max(X77)	max(X777)	max(X8)	max(pH)	max(Hplus)	max(H2)	max(CO2)	max(amm)	max(CH4)
1             	1.574985e-01	1.305119e-01	2.149174e-01	1.149033e-02	1.698551e-02	1.190504e-02	3.889098e-02	1.030003e+02	3.080000e+02	1.614702e+00	4.785415e-03	1.686336e-02	1.686336e-02	2.107920e-02	1.374206e-02	9.571986e-03	6.439075e-03	2.501991e-03	2.563017e-03	1.391163e-03	8.639714e-03	7.000000e+00	1.000000e-04	2.070486e-03	2.730316e-01	3.000000e-02	9.125731e-03
2             	1.773558e-01	8.211782e-02	3.664240e-01	4.903023e-02	7.106280e-02	4.924265e-02	1.660076e-01	1.030014e+02	3.080000e+02	1.078336e+00	6.840966e-03	1.121771e-02	1.121771e-02	1.402214e-02	2.605375e-02	2.417395e-02	7.165254e-03	2.836696e-03	3.357317e-03	1.479790e-03	8.540772e-03	7.000000e+00	1.000000e-04	3.592103e-03	5.126517e-01	3.000000e-02	4.330142e-02
3             	9.299385e-02	2.105945e-02	4.606501e-01	7.707264e-02	1.154209e-01	9.678627e-02	3.123604e-01	1.030023e+02	3.080000e+02	7.537501e-01	9.753986e-03	7.800233e-03	7.800233e-03	9.750291e-03	4.375101e-02	3.593869e-02	8.183049e-03	3.714104e-03	5.776144e-03	1.700616e-03	8.488550e-03	7.000000e+00	1.000000e-04	2.263993e-03	8.298290e-01	3.000000e-02	9.046499e-02
4             	3.476159e-02	1.127674e-02	5.188011e-01	8.576436e-02	1.213334e-01	1.256166e-01	4.233549e-01	1.030026e+02	3.080000e+02	5.574803e-01	1.207056e-02	5.733634e-03	5.733634e-03	7.167043e-03	5.566830e-02	4.129194e-02	9.462411e-03	5.131149e-03	1.089019e-02	2.037507e-03	8.455370e-03	7.000000e+00	1.000000e-04	1.298025e-03	1.215316e+00	3.000000e-02	1.273451e-01
5             	1.876985e-02	7.802197e-03	5.532713e-01	8.537050e-02	9.858529e-02	1.380180e-01	5.201693e-01	1.030028e+02	3.080000e+02	4.388891e-01	1.395373e-02	4.484804e-03	4.484804e-03	5.606005e-03	6.146573e-02	4.475470e-02	1.101388e-02	7.374717e-03	1.923647e-02	2.478345e-03	8.431452e-03	7.000000e+00	1.000000e-04	1.050762e-03	1.653759e+00	3.000000e-02	1.566451e-01
6             	1.359584e-02	6.007740e-03	5.712380e-01	7.529129e-02	6.415493e-02	1.447657e-01	6.157279e-01	1.030030e+02	3.080000e+02	3.673671e-01	1.581016e-02	3.731446e-03	3.731446e-03	4.664308e-03	6.504835e-02	4.723922e-02	1.286385e-02	1.101120e-02	2.872610e-02	3.033083e-03	8.413786e-03	7.000000e+00	1.000000e-04	9.395799e-04	2.140751e+00	3.000000e-02	1.848064e-01
7             	1.108284e-02	4.998378e-03	5.767410e-01	5.510386e-02	3.699727e-02	1.490467e-01	7.069183e-01	1.030031e+02	3.080000e+02	3.243666e-01	1.766715e-02	3.278344e-03	3.278344e-03	4.097930e-03	6.767547e-02	4.914443e-02	1.504672e-02	1.629613e-02	3.607544e-02	3.724990e-03	8.400764e-03	7.000000e+00	1.000000e-04	8.473108e-04	2.669157e+00	3.000000e-02	2.122636e-01
8             	9.656579e-03	4.401176e-03	5.719287e-01	3.216560e-02	2.108565e-02	1.483051e-01	7.935943e-01	1.030031e+02	3.080000e+02	2.986214e-01	1.952853e-02	3.006932e-03	3.006932e-03	3.758665e-03	6.976993e-02	5.069832e-02	1.760054e-02	2.185138e-02	4.076186e-02	4.580900e-03	8.391234e-03	7.000000e+00	1.000000e-04	7.790645e-04	3.227628e+00	3.000000e-02	2.390917e-01
9             	8.794751e-03	4.032214e-03	5.578351e-01	1.681309e-02	1.257065e-02	1.383414e-01	8.781711e-01	1.030032e+02	3.080000e+02	2.832870e-01	2.141365e-02	2.845178e-03	2.845178e-03	3.556472e-03	7.154405e-02	5.203546e-02	2.056294e-02	2.569399e-02	4.372058e-02	5.615408e-03	8.384462e-03	7.000000e+00	1.000000e-04	7.328658e-04	3.807421e+00	3.000000e-02	2.656088e-01
10            	8.247741e-03	3.793564e-03	5.348957e-01	9.783612e-03	8.446719e-03	1.194889e-01	9.637138e-01	1.030033e+02	3.080000e+02	2.742166e-01	2.336917e-02	2.749416e-03	2.749416e-03	3.436769e-03	7.311936e-02	5.323600e-02	2.396565e-02	2.775530e-02	4.565077e-02	6.815532e-03	8.379985e-03	7.000000e+00	1.000000e-04	7.089826e-04	4.403255e+00	3.000000e-02	2.925514e-01
11            	7.882106e-03	3.631027e-03	5.033301e-01	7.037244e-03	6.653044e-03	9.499471e-02	1.052748e+00	1.030034e+02	3.080000e+02	2.689175e-01	2.543061e-02	2.693376e-03	2.693376e-03	3.366720e-03	7.456743e-02	5.434794e-02	2.782676e-02	2.889455e-02	4.702234e-02	8.128119e-03	8.377512e-03	7.000000e+00	1.000000e-04	6.885139e-04	5.012079e+00	3.000000e-02	3.204623e-01
12            	7.623574e-03	3.513922e-03	4.634679e-01	5.971459e-03	5.889107e-03	6.878771e-02	1.145702e+00	1.030035e+02	3.080000e+02	2.658963e-01	2.757019e-02	2.661319e-03	2.661319e-03	3.326649e-03	7.593093e-02	5.540017e-02	3.213995e-02	2.965905e-02	4.812853e-02	9.445546e-03	8.376832e-03	7.000000e+00	1.000000e-04	6.535123e-04	5.632247e+00	3.000000e-02	3.488926e-01
13            	7.429754e-03	3.424544e-03	4.160598e-01	5.517750e-03	5.532474e-03	4.530165e-02	1.240995e+00	1.030035e+02	3.080000e+02	2.642537e-01	2.970020e-02	2.643777e-03	2.643777e-03	3.304722e-03	7.723558e-02	5.641020e-02	3.686043e-02	3.027611e-02	4.911263e-02	1.061381e-02	8.377754e-03	7.000000e+00	1.000000e-04	5.991959e-04	6.262816e+00	3.000000e-02	3.764818e-01
14            	7.275929e-03	3.352486e-03	3.625813e-01	5.287934e-03	5.333898e-03	2.817055e-02	1.336271e+00	1.030036e+02	3.080000e+02	2.634438e-01	3.172171e-02	2.635006e-03	2.635006e-03	3.293758e-03	7.849699e-02	5.738873e-02	4.188906e-02	3.083060e-02	5.003535e-02	1.150080e-02	8.380083e-03	7.000000e+00	1.000000e-04	5.363044e-04	6.903089e+00	3.000000e-02	4.017382e-01
15            	7.147439e-03	3.291534e-03	3.054728e-01	5.144587e-03	5.200081e-03	1.810983e-02	1.429816e+00	1.030037e+02	3.080000e+02	2.631329e-01	3.358465e-02	2.631496e-03	2.631496e-03	3.289370e-03	7.972469e-02	5.834231e-02	4.705947e-02	3.135407e-02	5.092179e-02	1.208755e-02	8.383634e-03	7.000000e+00	1.000000e-04	4.793288e-04	7.552469e+00	3.000000e-02	4.239677e-01
16            	7.035485e-03	3.237940e-03	2.481745e-01	5.038241e-03	5.095899e-03	1.315488e-02	1.520580e+00	1.030038e+02	3.080000e+02	2.631165e-01	3.528599e-02	2.631098e-03	2.631098e-03	3.288872e-03	8.092453e-02	5.927500e-02	5.213850e-02	3.185880e-02	5.178283e-02	1.245953e-02	8.388243e-03	7.000000e+00	1.000000e-04	4.308324e-04	8.210480e+00	3.000000e-02	4.432193e-01
17            	6.934722e-03	3.189413e-03	1.947430e-01	4.950105e-03	5.007327e-03	1.094786e-02	1.607260e+00	1.030039e+02	3.080000e+02	2.632685e-01	3.682082e-02	2.632487e-03	2.632487e-03	3.290609e-03	8.210012e-02	6.018928e-02	5.685444e-02	3.234995e-02	5.262367e-02	1.271510e-02	8.393764e-03	7.000000e+00	1.000000e-04	3.855615e-04	8.876789e+00	3.000000e-02	4.595086e-01
18            	6.841832e-03	3.144518e-03	1.489350e-01	4.872347e-03	4.928169e-03	9.984896e-03	1.688245e+00	1.030040e+02	3.080000e+02	2.635096e-01	3.816743e-02	2.634833e-03	2.634833e-03	3.293541e-03	8.325367e-02	6.108669e-02	6.096060e-02	3.282998e-02	5.344700e-02	1.291642e-02	8.400067e-03	7.000000e+00	1.000000e-04	3.411540e-04	9.551168e+00	3.000000e-02	4.725900e-01
19            	6.754700e-03	3.102332e-03	1.130551e-01	4.801278e-03	4.855333e-03	9.537809e-03	1.762440e+00	1.030041e+02	3.080000e+02	2.637889e-01	3.930915e-02	2.637603e-03	2.637603e-03	3.297004e-03	8.438655e-02	6.196817e-02	6.431336e-02	3.330016e-02	5.425435e-02	1.309359e-02	8.407032e-03	7.000000e+00	1.000000e-04	3.000076e-04	1.023345e+01	3.000000e-02	4.823021e-01
20            	6.671969e-03	3.062261e-03	8.730955e-02	4.734939e-03	4.787098e-03	9.296596e-03	1.829889e+00	1.030042e+02	3.080000e+02	2.640750e-01	4.025420e-02	2.640467e-03	2.640467e-03	3.300583e-03	8.549954e-02	6.283427e-02	6.691406e-02	3.376119e-02	5.504659e-02	1.325941e-02	8.414558e-03	7.000000e+00	1.000000e-04	2.657597e-04	1.092348e+01	3.000000e-02	4.888717e-01
21            	6.592801e-03	3.023935e-03	7.016942e-02	4.672203e-03	4.722447e-03	9.137045e-03	1.891668e+00	1.030043e+02	3.080000e+02	2.643504e-01	4.103512e-02	2.643235e-03	2.643235e-03	3.304044e-03	8.659311e-02	6.368533e-02	6.888152e-02	3.421349e-02	5.582426e-02	1.341906e-02	8.422561e-03	7.000000e+00	1.000000e-04	2.401368e-04	1.162113e+01	3.000000e-02	4.928919e-01
22            	6.516710e-03	2.987138e-03	5.937296e-02	4.612410e-03	4.660776e-03	9.010872e-03	1.949292e+00	1.030044e+02	3.080000e+02	2.646075e-01	4.169424e-02	2.645826e-03	2.645826e-03	3.307282e-03	8.766756e-02	6.452155e-02	7.038176e-02	3.465731e-02	5.658769e-02	1.357456e-02	8.430983e-03	7.000000e+00	1.000000e-04	2.224429e-04	1.232627e+01	3.000000e-02	4.950883e-01
23            	6.443437e-03	2.951750e-03	5.279512e-02	4.555178e-03	4.601734e-03	8.899613e-03	2.004167e+00	1.030045e+02	3.080000e+02	2.648450e-01	4.227003e-02	2.648220e-03	2.648220e-03	3.310275e-03	8.872307e-02	6.534307e-02	7.156810e-02	3.509282e-02	5.733710e-02	1.372670e-02	8.439778e-03	7.000000e+00	1.000000e-04	2.107497e-04	1.303879e+01	3.000000e-02	4.961050e-01
24            	6.372840e-03	2.917703e-03	4.883166e-02	4.500287e-03	4.545116e-03	8.796273e-03	2.057348e+00	1.030046e+02	3.080000e+02	2.650647e-01	4.279123e-02	2.650433e-03	2.650433e-03	3.313042e-03	8.975984e-02	6.615004e-02	7.255546e-02	3.552016e-02	5.807268e-02	1.387580e-02	8.448916e-03	7.000000e+00	1.000000e-04	2.030732e-04	1.375854e+01	3.000000e-02	4.964162e-01
25            	6.304832e-03	2.884948e-03	4.641573e-02	4.447604e-03	4.490794e-03	8.698203e-03	2.109536e+00	1.030047e+02	3.080000e+02	2.652695e-01	4.327684e-02	2.652496e-03	2.652496e-03	3.315619e-03	9.077807e-02	6.694262e-02	7.342002e-02	3.593944e-02	5.879463e-02	1.402201e-02	8.458375e-03	7.000000e+00	1.000000e-04	1.978924e-04	1.448542e+01	3.000000e-02	4.963322e-01
26            	6.239339e-03	2.853445e-03	4.489023e-02	4.397035e-03	4.438669e-03	8.604375e-03	2.161162e+00	1.030048e+02	3.080000e+02	2.654626e-01	4.373861e-02	2.654437e-03	2.654437e-03	3.318046e-03	9.177800e-02	6.772099e-02	7.420867e-02	3.635078e-02	5.950314e-02	1.416540e-02	8.468136e-03	7.000000e+00	1.000000e-04	1.941993e-04	1.521930e+01	3.000000e-02	4.960419e-01
27            	6.176284e-03	2.823149e-03	4.386916e-02	4.348495e-03	4.388655e-03	8.514352e-03	2.212479e+00	1.030049e+02	3.080000e+02	2.656463e-01	4.418344e-02	2.656282e-03	2.656282e-03	3.320353e-03	9.275987e-02	6.848536e-02	7.494902e-02	3.675432e-02	6.019841e-02	1.430604e-02	8.478187e-03	7.000000e+00	1.000000e-04	1.913777e-04	1.596006e+01	3.000000e-02	4.956547e-01
28            	6.115584e-03	2.794014e-03	4.313251e-02	4.301905e-03	4.340663e-03	8.427897e-03	2.263629e+00	1.030050e+02	3.080000e+02	2.658226e-01	4.461537e-02	2.658053e-03	2.658053e-03	3.322566e-03	9.372398e-02	6.923593e-02	7.565687e-02	3.715019e-02	6.088068e-02	1.444397e-02	8.488513e-03	7.000000e+00	1.000000e-04	1.890683e-04	1.670758e+01	3.000000e-02	4.952318e-01
29            	6.057146e-03	2.765993e-03	4.255732e-02	4.257179e-03	4.294605e-03	8.344844e-03	2.314693e+00	1.030051e+02	3.080000e+02	2.659931e-01	4.503668e-02	2.659763e-03	2.659763e-03	3.324703e-03	9.467060e-02	6.997293e-02	7.634116e-02	3.753854e-02	6.155018e-02	1.457924e-02	8.499106e-03	7.000000e+00	1.000000e-04	1.870671e-04	1.746174e+01	3.000000e-02	4.948064e-01
30            	6.000877e-03	2.739036e-03	4.207576e-02	4.214233e-03	4.250389e-03	8.265038e-03	2.365715e+00	1.030053e+02	3.080000e+02	2.661586e-01	4.544871e-02	2.661422e-03	2.661422e-03	3.326778e-03	9.560003e-02	7.069658e-02	7.700691e-02	3.791950e-02	6.220714e-02	1.471192e-02	8.509955e-03	7.000000e+00	1.000000e-04	1.852601e-04	1.822244e+01	3.000000e-02	4.943957e-01
31            	5.946681e-03	2.713094e-03	4.165073e-02	4.172981e-03	4.207926e-03	8.188331e-03	2.416717e+00	1.030054e+02	3.080000e+02	2.663199e-01	4.585225e-02	2.663040e-03	2.663040e-03	3.328800e-03	9.651258e-02	7.140713e-02	7.765696e-02	3.829323e-02	6.285180e-02	1.484205e-02	8.521050e-03	7.000000e+00	1.000000e-04	1.835839e-04	1.898956e+01	3.000000e-02	4.940085e-01
32            	5.894462e-03	2.688118e-03	4.126200e-02	4.133338e-03	4.167127e-03	8.114577e-03	2.467714e+00	1.030055e+02	3.080000e+02	2.664776e-01	4.624781e-02	2.664619e-03	2.664619e-03	3.330774e-03	9.740855e-02	7.210480e-02	7.829297e-02	3.865988e-02	6.348440e-02	1.496968e-02	8.532385e-03	7.000000e+00	1.000000e-04	1.820032e-04	1.976298e+01	3.000000e-02	4.936486e-01
33            	5.844128e-03	2.664063e-03	4.089847e-02	4.095222e-03	4.127907e-03	8.043631e-03	2.518713e+00	1.030056e+02	3.080000e+02	2.666318e-01	4.663571e-02	2.666165e-03	2.666165e-03	3.332706e-03	9.828824e-02	7.278981e-02	7.891593e-02	3.901957e-02	6.410517e-02	1.509487e-02	8.543951e-03	7.000000e+00	1.000000e-04	1.804977e-04	2.054260e+01	3.000000e-02	4.933174e-01
34            	5.795590e-03	2.640882e-03	4.055401e-02	4.058557e-03	4.090185e-03	7.975354e-03	2.569715e+00	1.030057e+02	3.080000e+02	2.667829e-01	4.701621e-02	2.667679e-03	2.667679e-03	3.334598e-03	9.915193e-02	7.346241e-02	7.952650e-02	3.937247e-02	6.471435e-02	1.521767e-02	8.555740e-03	7.000000e+00	1.000000e-04	1.790557e-04	2.132832e+01	3.000000e-02	4.930149e-01
35            	5.748763e-03	2.618535e-03	4.022511e-02	4.023268e-03	4.053885e-03	7.909612e-03	2.620725e+00	1.030058e+02	3.080000e+02	2.669310e-01	4.738950e-02	2.669163e-03	2.669163e-03	3.336453e-03	9.999994e-02	7.412281e-02	8.012513e-02	3.971869e-02	6.531216e-02	1.533813e-02	8.567746e-03	7.000000e+00	1.000000e-04	1.776699e-04	2.212002e+01	3.000000e-02	4.927404e-01
36            	5.703569e-03	2.596980e-03	3.990965e-02	3.989285e-03	4.018933e-03	7.846278e-03	2.671742e+00	1.030059e+02	3.080000e+02	2.670762e-01	4.775575e-02	2.670618e-03	2.670618e-03	3.338273e-03	1.008325e-01	7.477124e-02	8.071218e-02	4.005839e-02	6.589883e-02	1.545629e-02	8.579963e-03	7.000000e+00	1.000000e-04	1.763353e-04	2.291762e+01	3.000000e-02	4.924931e-01
37            	5.659929e-03	2.576181e-03	3.960629e-02	3.956542e-03	3.985262e-03	7.785232e-03	2.722768e+00	1.030060e+02	3.080000e+02	2.672187e-01	4.811512e-02	2.672046e-03	2.672046e-03	3.340057e-03	1.016500e-01	7.540791e-02	8.128795e-02	4.039168e-02	6.647456e-02	1.557221e-02	8.592384e-03	7.000000e+00	1.000000e-04	1.750483e-04	2.372099e+01	3.000000e-02	4.922717e-01
38            	5.617773e-03	2.556102e-03	3.931408e-02	3.924978e-03	3.952808e-03	7.726362e-03	2.773802e+00	1.030062e+02	3.080000e+02	2.673585e-01	4.846775e-02	2.673447e-03	2.673447e-03	3.341808e-03	1.024527e-01	7.603304e-02	8.185270e-02	4.071871e-02	6.703958e-02	1.568593e-02	8.605004e-03	7.000000e+00	1.000000e-04	1.738062e-04	2.453006e+01	3.000000e-02	4.920752e-01
39            	5.577033e-03	2.536710e-03	3.903231e-02	3.894535e-03	3.921510e-03	7.669562e-03	2.824845e+00	1.030063e+02	3.080000e+02	2.674958e-01	4.881378e-02	2.674821e-03	2.674821e-03	3.343527e-03	1.032407e-01	7.664683e-02	8.240668e-02	4.103959e-02	6.759410e-02	1.579750e-02	8.617817e-03	7.000000e+00	1.000000e-04	1.726065e-04	2.534471e+01	3.000000e-02	4.919024e-01
40            	5.537646e-03	2.517972e-03	3.876037e-02	3.865159e-03	3.891314e-03	7.614732e-03	2.875897e+00	1.030064e+02	3.080000e+02	2.676304e-01	4.915335e-02	2.676171e-03	2.676171e-03	3.345213e-03	1.040145e-01	7.724950e-02	8.295012e-02	4.135445e-02	6.813831e-02	1.590696e-02	8.630818e-03	7.000000e+00	1.000000e-04	1.714470e-04	2.616485e+01	3.000000e-02	4.917522e-01
41            	5.499551e-03	2.499859e-03	3.849776e-02	3.836798e-03	3.862166e-03	7.561778e-03	2.926958e+00	1.030065e+02	3.080000e+02	2.677626e-01	4.948659e-02	2.677495e-03	2.677495e-03	3.346869e-03	1.047742e-01	7.784125e-02	8.348325e-02	4.166341e-02	6.867242e-02	1.601436e-02	8.644003e-03	7.000000e+00	1.000000e-04	1.703260e-04	2.699040e+01	3.000000e-02	4.916235e-01
42            	5.462692e-03	2.482344e-03	3.824402e-02	3.809406e-03	3.834018e-03	7.510613e-03	2.978028e+00	1.030066e+02	3.080000e+02	2.678924e-01	4.981361e-02	2.678795e-03	2.678795e-03	3.348494e-03	1.055201e-01	7.842227e-02	8.400628e-02	4.196658e-02	6.919662e-02	1.611973e-02	8.657366e-03	7.000000e+00	1.000000e-04	1.692417e-04	2.782126e+01	3.000000e-02	4.915152e-01
43            	5.427015e-03	2.465400e-03	3.799874e-02	3.782937e-03	3.806821e-03	7.461156e-03	3.029106e+00	1.030067e+02	3.080000e+02	2.680198e-01	5.013455e-02	2.680071e-03	2.680071e-03	3.350089e-03	1.062525e-01	7.899277e-02	8.451941e-02	4.226409e-02	6.971111e-02	1.622312e-02	8.670904e-03	7.000000e+00	1.000000e-04	1.681923e-04	2.865733e+01	3.000000e-02	4.914264e-01
44            	5.392470e-03	2.449003e-03	3.776151e-02	3.757350e-03	3.780535e-03	7.413328e-03	3.080193e+00	1.030068e+02	3.080000e+02	2.681448e-01	5.044952e-02	2.681324e-03	2.681324e-03	3.351655e-03	1.069716e-01	7.955292e-02	8.502286e-02	4.255603e-02	7.021606e-02	1.632457e-02	8.684612e-03	7.000000e+00	1.000000e-04	1.671765e-04	2.949854e+01	3.000000e-02	4.913560e-01
45            	5.359010e-03	2.433128e-03	3.753199e-02	3.732604e-03	3.755116e-03	7.367057e-03	3.131289e+00	1.030069e+02	3.080000e+02	2.682675e-01	5.075864e-02	2.682553e-03	2.682553e-03	3.353192e-03	1.076777e-01	8.010293e-02	8.551682e-02	4.284253e-02	7.071167e-02	1.642411e-02	8.698486e-03	7.000000e+00	1.000000e-04	1.661927e-04	3.034479e+01	3.000000e-02	4.913032e-01
46            	5.326589e-03	2.417754e-03	3.730982e-02	3.708663e-03	3.730527e-03	7.322274e-03	3.182393e+00	1.030071e+02	3.080000e+02	2.683880e-01	5.106202e-02	2.683761e-03	2.683761e-03	3.354701e-03	1.083710e-01	8.064297e-02	8.600148e-02	4.312369e-02	7.119810e-02	1.652179e-02	8.712523e-03	7.000000e+00	1.000000e-04	1.652396e-04	3.119599e+01	3.000000e-02	4.912670e-01
47            	5.295164e-03	2.402859e-03	3.709470e-02	3.685492e-03	3.706732e-03	7.278916e-03	3.233505e+00	1.030072e+02	3.080000e+02	2.685063e-01	5.135978e-02	2.684946e-03	2.684946e-03	3.356182e-03	1.090517e-01	8.117323e-02	8.647703e-02	4.339961e-02	7.167555e-02	1.661764e-02	8.726719e-03	7.000000e+00	1.000000e-04	1.643159e-04	3.205208e+01	3.000000e-02	4.912467e-01
48            	5.264696e-03	2.388425e-03	3.688632e-02	3.663057e-03	3.683696e-03	7.236921e-03	3.284626e+00	1.030073e+02	3.080000e+02	2.686224e-01	5.165203e-02	2.686109e-03	2.686109e-03	3.357636e-03	1.097201e-01	8.169389e-02	8.694366e-02	4.367039e-02	7.214417e-02	1.671170e-02	8.741070e-03	7.000000e+00	1.000000e-04	1.634204e-04	3.291295e+01	3.000000e-02	4.912414e-01
49            	5.235145e-03	2.374433e-03	3.668439e-02	3.641327e-03	3.661387e-03	7.196232e-03	3.335755e+00	1.030074e+02	3.080000e+02	2.687364e-01	5.193886e-02	2.687251e-03	2.687251e-03	3.359064e-03	1.103763e-01	8.220511e-02	8.740153e-02	4.393613e-02	7.260413e-02	1.680400e-02	8.755574e-03	7.000000e+00	1.000000e-04	1.625520e-04	3.377854e+01	3.000000e-02	4.912504e-01
50            	5.206477e-03	2.360863e-03	3.648866e-02	3.620274e-03	3.639774e-03	7.156795e-03	3.386891e+00	1.030075e+02	3.080000e+02	2.688484e-01	5.222039e-02	2.688372e-03	2.688372e-03	3.360465e-03	1.110207e-01	8.270707e-02	8.785084e-02	4.419694e-02	7.305561e-02	1.689458e-02	8.770228e-03	7.000000e+00	1.000000e-04	1.617096e-04	3.464876e+01	3.000000e-02	4.912730e-01
51            	5.178656e-03	2.347701e-03	3.629886e-02	3.599868e-03	3.618830e-03	7.118559e-03	3.438036e+00	1.030076e+02	3.080000e+02	2.689582e-01	5.249673e-02	2.689473e-03	2.689473e-03	3.361841e-03	1.116534e-01	8.319995e-02	8.829174e-02	4.445290e-02	7.349876e-02	1.698347e-02	8.785028e-03	7.000000e+00	1.000000e-04	1.608921e-04	3.552353e+01	3.000000e-02	4.913083e-01
52            	5.151650e-03	2.334930e-03	3.611475e-02	3.580084e-03	3.598526e-03	7.081475e-03	3.489188e+00	1.030077e+02	3.080000e+02	2.690661e-01	5.276795e-02	2.690554e-03	2.690554e-03	3.363192e-03	1.122746e-01	8.368390e-02	8.872440e-02	4.470411e-02	7.393373e-02	1.707071e-02	8.799971e-03	7.000000e+00	1.000000e-04	1.600986e-04	3.640279e+01	3.000000e-02	4.913558e-01
53            	5.125427e-03	2.322535e-03	3.593612e-02	3.560896e-03	3.578836e-03	7.045497e-03	3.540347e+00	1.030079e+02	3.080000e+02	2.691720e-01	5.303418e-02	2.691615e-03	2.691615e-03	3.364519e-03	1.128846e-01	8.415908e-02	8.914899e-02	4.495067e-02	7.436068e-02	1.715632e-02	8.815056e-03	7.000000e+00	1.000000e-04	1.593282e-04	3.728645e+01	3.000000e-02	4.914149e-01
54            	5.099959e-03	2.310500e-03	3.576274e-02	3.542282e-03	3.559737e-03	7.010582e-03	3.591514e+00	1.030080e+02	3.080000e+02	2.692760e-01	5.329549e-02	2.692657e-03	2.692657e-03	3.365821e-03	1.134836e-01	8.462566e-02	8.956566e-02	4.519265e-02	7.477977e-02	1.724034e-02	8.830279e-03	7.000000e+00	1.000000e-04	1.585800e-04	3.817444e+01	3.000000e-02	4.914849e-01
55            	5.075217e-03	2.298814e-03	3.559442e-02	3.524218e-03	3.541205e-03	6.976689e-03	3.642687e+00	1.030081e+02	3.080000e+02	2.693781e-01	5.355200e-02	2.693679e-03	2.693679e-03	3.367099e-03	1.140717e-01	8.508380e-02	8.997457e-02	4.543015e-02	7.519114e-02	1.732280e-02	8.845638e-03	7.000000e+00	1.000000e-04	1.578531e-04	3.906669e+01	3.000000e-02	4.915652e-01
56            	5.051174e-03	2.287463e-03	3.543096e-02	3.506683e-03	3.523218e-03	6.943778e-03	3.693868e+00	1.030082e+02	3.080000e+02	2.694783e-01	5.380377e-02	2.694684e-03	2.694684e-03	3.368355e-03	1.146491e-01	8.553363e-02	9.037588e-02	4.566326e-02	7.559494e-02	1.740373e-02	8.861131e-03	7.000000e+00	1.000000e-04	1.571467e-04	3.996313e+01	3.000000e-02	4.916553e-01
57            	5.027805e-03	2.276433e-03	3.527217e-02	3.489658e-03	3.505755e-03	6.911813e-03	3.745055e+00	1.030083e+02	3.080000e+02	2.695767e-01	5.405092e-02	2.695670e-03	2.695670e-03	3.369587e-03	1.152161e-01	8.597533e-02	9.076972e-02	4.589205e-02	7.599130e-02	1.748316e-02	8.876756e-03	7.000000e+00	1.000000e-04	1.564602e-04	4.086369e+01	3.000000e-02	4.917548e-01
58            	5.005086e-03	2.265715e-03	3.511788e-02	3.473122e-03	3.488797e-03	6.880757e-03	3.796249e+00	1.030084e+02	3.080000e+02	2.696734e-01	5.429351e-02	2.696638e-03	2.696638e-03	3.370797e-03	1.157728e-01	8.640903e-02	9.115625e-02	4.611661e-02	7.638038e-02	1.756112e-02	8.892510e-03	7.000000e+00	1.000000e-04	1.557928e-04	4.176830e+01	3.000000e-02	4.918629e-01
59            	4.982994e-03	2.255295e-03	3.496793e-02	3.457058e-03	3.472324e-03	6.850578e-03	3.847448e+00	1.030085e+02	3.080000e+02	2.697682e-01	5.453165e-02	2.697588e-03	2.697588e-03	3.371985e-03	1.163195e-01	8.683487e-02	9.153560e-02	4.633702e-02	7.676230e-02	1.763763e-02	8.908391e-03	7.000000e+00	1.000000e-04	1.551437e-04	4.267689e+01	3.000000e-02	4.919794e-01
60            	4.961506e-03	2.245165e-03	3.482215e-02	3.441448e-03	3.456318e-03	6.821244e-03	3.898654e+00	1.030087e+02	3.080000e+02	2.698614e-01	5.476542e-02	2.698521e-03	2.698521e-03	3.373152e-03	1.168563e-01	8.725301e-02	9.190792e-02	4.655336e-02	7.713720e-02	1.771273e-02	8.924398e-03	7.000000e+00	1.000000e-04	1.545125e-04	4.358940e+01	3.000000e-02	4.921038e-01
61            	4.940601e-03	2.235313e-03	3.468040e-02	3.426276e-03	3.440763e-03	6.792723e-03	3.949866e+00	1.030088e+02	3.080000e+02	2.699528e-01	5.499489e-02	2.699438e-03	2.699438e-03	3.374297e-03	1.173833e-01	8.766358e-02	9.227333e-02	4.676571e-02	7.750521e-02	1.778644e-02	8.940529e-03	7.000000e+00	1.000000e-04	1.538983e-04	4.450577e+01	3.000000e-02	4.922356e-01
62            	4.920260e-03	2.225729e-03	3.454254e-02	3.411525e-03	3.425642e-03	6.764987e-03	4.001083e+00	1.030089e+02	3.080000e+02	2.700426e-01	5.522014e-02	2.700337e-03	2.700337e-03	3.375422e-03	1.179008e-01	8.806672e-02	9.263198e-02	4.697413e-02	7.786645e-02	1.785878e-02	8.956781e-03	7.000000e+00	1.000000e-04	1.533007e-04	4.542592e+01	3.000000e-02	4.923744e-01
63            	4.900463e-03	2.216405e-03	3.440842e-02	3.397182e-03	3.410940e-03	6.738008e-03	4.052306e+00	1.030090e+02	3.080000e+02	2.701308e-01	5.544127e-02	2.701221e-03	2.701221e-03	3.376526e-03	1.184090e-01	8.846257e-02	9.298400e-02	4.717871e-02	7.822107e-02	1.792979e-02	8.973153e-03	7.000000e+00	1.000000e-04	1.527191e-04	4.634981e+01	3.000000e-02	4.925198e-01
64            	4.881191e-03	2.207331e-03	3.427792e-02	3.383231e-03	3.396641e-03	6.711760e-03	4.103534e+00	1.030091e+02	3.080000e+02	2.702174e-01	5.565834e-02	2.702088e-03	2.702088e-03	3.377610e-03	1.189079e-01	8.885125e-02	9.332950e-02	4.737953e-02	7.856917e-02	1.799949e-02	8.989644e-03	7.000000e+00	1.000000e-04	1.521529e-04	4.727736e+01	3.000000e-02	4.926714e-01
65            	4.862428e-03	2.198500e-03	3.415092e-02	3.369659e-03	3.382732e-03	6.686217e-03	4.154767e+00	1.030092e+02	3.080000e+02	2.703024e-01	5.587143e-02	2.702940e-03	2.702940e-03	3.378675e-03	1.193979e-01	8.923289e-02	9.366862e-02	4.757663e-02	7.891089e-02	1.806790e-02	9.006252e-03	7.000000e+00	1.000000e-04	1.516016e-04	4.820853e+01	3.000000e-02	4.928290e-01
66            	4.844156e-03	2.189902e-03	3.402728e-02	3.356453e-03	3.369199e-03	6.661355e-03	4.206004e+00	1.030093e+02	3.080000e+02	2.703859e-01	5.608062e-02	2.703776e-03	2.703776e-03	3.379720e-03	1.198789e-01	8.960763e-02	9.400148e-02	4.777011e-02	7.924633e-02	1.813506e-02	9.022975e-03	7.000000e+00	1.000000e-04	1.510647e-04	4.914324e+01	3.000000e-02	4.929921e-01
67            	4.826359e-03	2.181530e-03	3.390691e-02	3.343599e-03	3.356029e-03	6.637152e-03	4.257246e+00	1.030095e+02	3.080000e+02	2.704679e-01	5.628597e-02	2.704597e-03	2.704597e-03	3.380747e-03	1.203513e-01	8.997559e-02	9.432819e-02	4.796003e-02	7.957562e-02	1.820097e-02	9.039812e-03	7.000000e+00	1.000000e-04	1.505418e-04	5.008144e+01	3.000000e-02	4.931605e-01
68            	4.809021e-03	2.173377e-03	3.378968e-02	3.331088e-03	3.343211e-03	6.613585e-03	4.308493e+00	1.030096e+02	3.080000e+02	2.705484e-01	5.648757e-02	2.705404e-03	2.705404e-03	3.381755e-03	1.208151e-01	9.033689e-02	9.464888e-02	4.814645e-02	7.989887e-02	1.826567e-02	9.056762e-03	7.000000e+00	1.000000e-04	1.500323e-04	5.102308e+01	3.000000e-02	4.933338e-01
69            	4.792128e-03	2.165435e-03	3.367551e-02	3.318906e-03	3.330731e-03	6.590633e-03	4.359744e+00	1.030097e+02	3.080000e+02	2.706274e-01	5.668547e-02	2.706195e-03	2.706195e-03	3.382744e-03	1.212706e-01	9.069165e-02	9.496365e-02	4.832944e-02	8.021620e-02	1.832918e-02	9.073823e-03	7.000000e+00	1.000000e-04	1.495359e-04	5.196810e+01	3.000000e-02	4.935118e-01
70            	4.775666e-03	2.157698e-03	3.356428e-02	3.307043e-03	3.318579e-03	6.568276e-03	4.410998e+00	1.030098e+02	3.080000e+02	2.707050e-01	5.687976e-02	2.706973e-03	2.706973e-03	3.383716e-03	1.217178e-01	9.104000e-02	9.527263e-02	4.850906e-02	8.052770e-02	1.839152e-02	9.090994e-03	7.000000e+00	1.000000e-04	1.490522e-04	5.291645e+01	3.000000e-02	4.936942e-01
71            	4.759621e-03	2.150158e-03	3.345590e-02	3.295488e-03	3.306744e-03	6.546495e-03	4.462257e+00	1.030099e+02	3.080000e+02	2.707812e-01	5.707049e-02	2.707736e-03	2.707736e-03	3.384671e-03	1.221569e-01	9.138204e-02	9.557591e-02	4.868538e-02	8.083350e-02	1.845271e-02	9.108274e-03	7.000000e+00	1.000000e-04	1.485806e-04	5.386807e+01	3.000000e-02	4.938807e-01
72            	4.743980e-03	2.142811e-03	3.335028e-02	3.284232e-03	3.295216e-03	6.525271e-03	4.513519e+00	1.030100e+02	3.080000e+02	2.708561e-01	5.725774e-02	2.708486e-03	2.708486e-03	3.385608e-03	1.225881e-01	9.171789e-02	9.587362e-02	4.885846e-02	8.113370e-02	1.851278e-02	9.125661e-03	7.000000e+00	1.000000e-04	1.481209e-04	5.482290e+01	3.000000e-02	4.940711e-01
73            	4.728730e-03	2.135649e-03	3.324733e-02	3.273265e-03	3.283984e-03	6.504586e-03	4.564784e+00	1.030101e+02	3.080000e+02	2.709295e-01	5.744156e-02	2.709222e-03	2.709222e-03	3.386528e-03	1.230115e-01	9.204767e-02	9.616584e-02	4.902836e-02	8.142840e-02	1.857174e-02	9.143154e-03	7.000000e+00	1.000000e-04	1.476727e-04	5.578091e+01	3.000000e-02	4.942651e-01
74            	4.713859e-03	2.128667e-03	3.314698e-02	3.262577e-03	3.273040e-03	6.484423e-03	4.616052e+00	1.030103e+02	3.080000e+02	2.710017e-01	5.762203e-02	2.709945e-03	2.709945e-03	3.387432e-03	1.234272e-01	9.237148e-02	9.645270e-02	4.919513e-02	8.171770e-02	1.862962e-02	9.160753e-03	7.000000e+00	1.000000e-04	1.472356e-04	5.674204e+01	3.000000e-02	4.944626e-01
75            	4.699356e-03	2.121859e-03	3.304913e-02	3.252160e-03	3.262374e-03	6.464766e-03	4.667323e+00	1.030104e+02	3.080000e+02	2.710726e-01	5.779920e-02	2.710655e-03	2.710655e-03	3.388319e-03	1.238355e-01	9.268943e-02	9.673428e-02	4.935885e-02	8.200170e-02	1.868644e-02	9.178456e-03	7.000000e+00	1.000000e-04	1.468093e-04	5.770623e+01	3.000000e-02	4.946632e-01
76            	4.685209e-03	2.115221e-03	3.295371e-02	3.242005e-03	3.251977e-03	6.445600e-03	4.718597e+00	1.030105e+02	3.080000e+02	2.711422e-01	5.797313e-02	2.711353e-03	2.711353e-03	3.389191e-03	1.242363e-01	9.300164e-02	9.701068e-02	4.951956e-02	8.228050e-02	1.874222e-02	9.196262e-03	7.000000e+00	1.000000e-04	1.463935e-04	5.867344e+01	3.000000e-02	4.948669e-01
77            	4.671408e-03	2.108746e-03	3.286064e-02	3.232104e-03	3.241841e-03	6.426908e-03	4.769873e+00	1.030106e+02	3.080000e+02	2.712105e-01	5.814389e-02	2.712037e-03	2.712037e-03	3.390046e-03	1.246299e-01	9.330819e-02	9.728202e-02	4.967732e-02	8.255421e-02	1.879697e-02	9.214170e-03	7.000000e+00	1.000000e-04	1.459878e-04	5.964363e+01	3.000000e-02	4.950735e-01
78            	4.657943e-03	2.102430e-03	3.276986e-02	3.222450e-03	3.231958e-03	6.408677e-03	4.821152e+00	1.030107e+02	3.080000e+02	2.712776e-01	5.831154e-02	2.712710e-03	2.712710e-03	3.390887e-03	1.250164e-01	9.360920e-02	9.754837e-02	4.983218e-02	8.282290e-02	1.885071e-02	9.232180e-03	7.000000e+00	1.000000e-04	1.455919e-04	6.061674e+01	3.000000e-02	4.952826e-01
79            	4.644803e-03	2.096268e-03	3.268130e-02	3.213034e-03	3.222320e-03	6.390893e-03	4.872432e+00	1.030108e+02	3.080000e+02	2.713435e-01	5.847612e-02	2.713370e-03	2.713370e-03	3.391712e-03	1.253959e-01	9.390477e-02	9.780983e-02	4.998420e-02	8.308668e-02	1.890348e-02	9.250290e-03	7.000000e+00	1.000000e-04	1.452056e-04	6.159272e+01	3.000000e-02	4.954943e-01
80            	4.631979e-03	2.090256e-03	3.259488e-02	3.203850e-03	3.212920e-03	6.373542e-03	4.923715e+00	1.030109e+02	3.080000e+02	2.714082e-01	5.863771e-02	2.714018e-03	2.714018e-03	3.392523e-03	1.257686e-01	9.419499e-02	9.806650e-02	5.013344e-02	8.334563e-02	1.895527e-02	9.268500e-03	7.000000e+00	1.000000e-04	1.448286e-04	6.257155e+01	3.000000e-02	4.957083e-01
81            	4.619462e-03	2.084388e-03	3.251055e-02	3.194891e-03	3.203750e-03	6.356611e-03	4.974999e+00	1.030111e+02	3.080000e+02	2.714718e-01	5.879635e-02	2.714655e-03	2.714655e-03	3.393319e-03	1.261345e-01	9.447996e-02	9.831847e-02	5.027994e-02	8.359985e-02	1.900612e-02	9.286808e-03	7.000000e+00	1.000000e-04	1.444606e-04	6.355316e+01	3.000000e-02	4.959245e-01