# Region      : all 
# Cells       : 1
# Volume      : 2.500000e+01
# Time        	max(psi4)	max(psi5)	max(psi6)	max(psi7)	max(psi77)	max(psi777)	max(psi8)	max(psiIN)	max(T)	max(Xc)	max(XH2)	max(X1)	max(X2)	max(X3)	max(X4)	max(X5)	max(X6)	max(X7)	max(X8)	max(pH)	max(Hplus)	max(H2)	max(CO2)	max(amm)	max(CH4)
1             	2.172418e-03	1.902436e-03	2.703222e-03	2.020340e-04	2.574684e-04	2.103427e-04	5.012522e-04	1.030000e+02	3.080000e+02	4.992170e-02	4.220957e-03	4.588584e-04	4.588584e-04	5.735690e-04	9.842176e-03	5.237511e-03	6.081455e-03	2.452663e-03	8.626053e-03	7.000000e+00	1.000000e-04	2.489376e-05	2.666282e-01	3.000000e-02	9.999503e-05
2             	6.747602e-03	5.544585e-03	9.799126e-03	7.334611e-04	1.061343e-03	8.027808e-04	2.559387e-03	1.030000e+02	3.080000e+02	8.011691e-02	4.172697e-03	7.767043e-04	7.767043e-04	9.708803e-04	9.857478e-03	5.344722e-03	5.987290e-03	2.410263e-03	8.456965e-03	7.000000e+00	1.000000e-04	8.695095e-05	4.553513e-01	3.000000e-02	6.738158e-04
3             	1.160261e-02	8.914510e-03	1.934949e-02	1.797687e-03	2.661375e-03	2.013819e-03	6.935104e-03	1.030000e+02	3.080000e+02	9.842235e-02	4.170815e-03	9.693881e-04	9.693881e-04	1.211735e-03	1.010813e-02	5.669654e-03	5.930169e-03	2.379498e-03	8.295024e-03	7.000000e+00	1.000000e-04	1.631074e-04	6.420317e-01	3.000000e-02	1.992803e-03
4             	1.567143e-02	1.116733e-02	3.010602e-02	3.331564e-03	4.949081e-03	3.789147e-03	1.368312e-02	1.030001e+02	3.080000e+02	1.095293e-01	4.218862e-03	1.086286e-03	1.086286e-03	1.357858e-03	1.059132e-02	6.196822e-03	5.914667e-03	2.366759e-03	8.142385e-03	7.000000e+00	1.000000e-04	2.394951e-04	8.280080e-01	3.000000e-02	4.132721e-03
5             	1.853616e-02	1.215132e-02	4.133684e-02	5.213422e-03	7.726326e-03	6.015910e-03	2.262232e-02	1.030002e+02	3.080000e+02	1.162816e-01	4.315191e-03	1.157333e-03	1.157333e-03	1.446667e-03	1.128106e-02	6.886975e-03	5.941567e-03	2.377152e-03	8.000478e-03	7.000000e+00	1.000000e-04	3.080579e-04	1.014588e+00	3.000000e-02	7.073796e-03
6             	2.013901e-02	1.211101e-02	5.261117e-02	7.293780e-03	1.074976e-02	8.559814e-03	3.346124e-02	1.030002e+02	3.080000e+02	1.204020e-01	4.455523e-03	1.200667e-03	1.200667e-03	1.500833e-03	1.214102e-02	7.688939e-03	6.010200e-03	2.414458e-03	7.869896e-03	7.000000e+00	1.000000e-04	3.641970e-04	1.202952e+00	3.000000e-02	1.074100e-02
7             	2.063909e-02	1.145639e-02	6.367253e-02	9.423204e-03	1.376452e-02	1.127997e-02	4.587822e-02	1.030003e+02	3.080000e+02	1.229339e-01	4.634312e-03	1.227269e-03	1.227269e-03	1.534086e-03	1.312916e-02	8.550775e-03	6.119586e-03	2.481427e-03	7.750532e-03	7.000000e+00	1.000000e-04	4.065151e-04	1.394099e+00	3.000000e-02	1.502920e-02
8             	2.031173e-02	1.056256e-02	7.436444e-02	1.148020e-02	1.654112e-02	1.404300e-02	5.959364e-02	1.030004e+02	3.080000e+02	1.245081e-01	4.845933e-03	1.243785e-03	1.243785e-03	1.554732e-03	1.420185e-02	9.431197e-03	6.268945e-03	2.580305e-03	7.641814e-03	7.000000e+00	1.000000e-04	4.362976e-04	1.588839e+00	3.000000e-02	1.982682e-02
9             	1.946222e-02	9.666131e-03	8.458692e-02	1.338267e-02	1.889886e-02	1.673636e-02	7.441312e-02	1.030004e+02	3.080000e+02	1.255064e-01	5.085637e-03	1.254233e-03	1.254233e-03	1.567791e-03	1.531887e-02	1.030485e-02	6.457893e-03	2.713486e-03	7.542941e-03	7.000000e+00	1.000000e-04	4.563018e-04	1.787827e+00	3.000000e-02	2.503493e-02
10            	1.835880e-02	8.868973e-03	9.427112e-02	1.507993e-02	2.071101e-02	1.927634e-02	9.023075e-02	1.030005e+02	3.080000e+02	1.261592e-01	5.350030e-03	1.261039e-03	1.261039e-03	1.576299e-03	1.644779e-02	1.116004e-02	6.686483e-03	2.884066e-03	7.453046e-03	7.000000e+00	1.000000e-04	4.694911e-04	1.991603e+00	3.000000e-02	3.057737e-02
11            	1.719615e-02	8.191620e-03	1.033647e-01	1.653713e-02	2.190249e-02	2.160915e-02	1.070062e-01	1.030006e+02	3.080000e+02	1.266060e-01	5.637079e-03	1.265672e-03	1.265672e-03	1.582090e-03	1.756611e-02	1.199328e-02	6.955186e-03	3.096156e-03	7.371292e-03	7.000000e+00	1.000000e-04	4.782393e-04	2.200636e+00	3.000000e-02	3.640181e-02
12            	1.609024e-02	7.621513e-03	1.118236e-01	1.772327e-02	2.244989e-02	2.370617e-02	1.247337e-01	1.030006e+02	3.080000e+02	1.269309e-01	5.945778e-03	1.269019e-03	1.269019e-03	1.586273e-03	1.866080e-02	1.280463e-02	7.264838e-03	3.354887e-03	7.296906e-03	7.000000e+00	1.000000e-04	4.840653e-04	2.415342e+00	3.000000e-02	4.247466e-02
13            	1.509417e-02	7.138829e-03	1.196073e-01	1.860641e-02	2.238364e-02	2.555613e-02	1.434157e-01	1.030007e+02	3.080000e+02	1.271850e-01	6.275697e-03	1.271616e-03	1.271616e-03	1.589520e-03	1.972602e-02	1.359533e-02	7.616576e-03	3.666077e-03	7.229193e-03	7.000000e+00	1.000000e-04	4.877439e-04	2.636091e+00	3.000000e-02	4.877361e-02
14            	1.422078e-02	6.725778e-03	1.266766e-01	1.915484e-02	2.178564e-02	2.715669e-02	1.630445e-01	1.030007e+02	3.080000e+02	1.273990e-01	6.626583e-03	1.273787e-03	1.273787e-03	1.592234e-03	2.076049e-02	1.436673e-02	8.011762e-03	4.035471e-03	7.167526e-03	7.000000e+00	1.000000e-04	4.895954e-04	2.863191e+00	3.000000e-02	5.528104e-02
15            	1.346220e-02	6.368404e-03	1.329928e-01	1.934268e-02	2.077687e-02	2.850694e-02	1.835972e-01	1.030008e+02	3.080000e+02	1.275913e-01	6.998112e-03	1.275727e-03	1.275727e-03	1.594658e-03	2.176527e-02	1.512007e-02	8.451905e-03	4.467485e-03	7.111338e-03	7.000000e+00	1.000000e-04	4.897698e-04	3.096873e+00	3.000000e-02	6.197996e-02
16            	1.280285e-02	6.056091e-03	1.385177e-01	1.915836e-02	1.949561e-02	2.960164e-02	2.050396e-01	1.030009e+02	3.080000e+02	1.277728e-01	7.389825e-03	1.277549e-03	1.277549e-03	1.596937e-03	2.274230e-02	1.585641e-02	8.938574e-03	4.963542e-03	7.060117e-03	7.000000e+00	1.000000e-04	4.884110e-04	3.337276e+00	3.000000e-02	6.885273e-02
17            	1.222628e-02	5.780730e-03	1.432142e-01	1.861372e-02	1.807320e-02	3.042746e-02	2.273338e-01	1.030009e+02	3.080000e+02	1.279497e-01	7.801127e-03	1.279321e-03	1.279321e-03	1.599151e-03	2.369367e-02	1.657666e-02	9.473296e-03	5.520324e-03	7.013399e-03	7.000000e+00	1.000000e-04	4.856802e-04	3.584448e+00	3.000000e-02	7.588114e-02
18            	1.171800e-02	5.536046e-03	1.470476e-01	1.775041e-02	1.661626e-02	3.096234e-02	2.504446e-01	1.030010e+02	3.080000e+02	1.281253e-01	8.231293e-03	1.281077e-03	1.281077e-03	1.601346e-03	2.462131e-02	1.728162e-02	1.005745e-02	6.128619e-03	6.970767e-03	7.000000e+00	1.000000e-04	4.817098e-04	3.838360e+00	3.000000e-02	8.304629e-02
19            	1.126616e-02	5.317106e-03	1.499871e-01	1.663981e-02	1.520005e-02	3.117881e-02	2.743406e-01	1.030010e+02	3.080000e+02	1.283011e-01	8.679408e-03	1.282835e-03	1.282835e-03	1.603543e-03	2.552684e-02	1.797198e-02	1.069216e-02	6.773470e-03	6.931847e-03	7.000000e+00	1.000000e-04	4.765681e-04	4.098925e+00	3.000000e-02	9.032773e-02
20            	1.086134e-02	5.119985e-03	1.520074e-01	1.537444e-02	1.387137e-02	3.105137e-02	2.989907e-01	1.030011e+02	3.080000e+02	1.284778e-01	9.144281e-03	1.284601e-03	1.284601e-03	1.605751e-03	2.641164e-02	1.864833e-02	1.137813e-02	7.435993e-03	6.896303e-03	7.000000e+00	1.000000e-04	4.702708e-04	4.366018e+00	3.000000e-02	9.770205e-02
21            	1.049613e-02	4.941517e-03	1.530912e-01	1.405287e-02	1.265615e-02	3.056626e-02	3.243607e-01	1.030011e+02	3.080000e+02	1.286552e-01	9.624380e-03	1.286374e-03	1.286374e-03	1.607968e-03	2.727686e-02	1.931122e-02	1.211552e-02	8.096456e-03	6.863836e-03	7.000000e+00	1.000000e-04	4.628189e-04	4.639492e+00	3.000000e-02	1.051418e-01
22            	1.016463e-02	4.779123e-03	1.532314e-01	1.276318e-02	1.156679e-02	2.973045e-02	3.504103e-01	1.030012e+02	3.080000e+02	1.288330e-01	1.011780e-02	1.288152e-03	1.288152e-03	1.610190e-03	2.812349e-02	1.996111e-02	1.290382e-02	8.737573e-03	6.834175e-03	7.000000e+00	1.000000e-04	4.542328e-04	4.919189e+00	3.000000e-02	1.126152e-01
23            	9.862101e-03	4.630681e-03	1.524333e-01	1.157098e-02	1.060721e-02	2.857644e-02	3.770918e-01	1.030012e+02	3.080000e+02	1.290105e-01	1.062229e-02	1.289928e-03	1.289928e-03	1.612410e-03	2.895235e-02	2.059844e-02	1.374164e-02	9.346835e-03	6.807078e-03	7.000000e+00	1.000000e-04	4.445683e-04	5.204944e+00	3.000000e-02	1.200864e-01
24            	9.584702e-03	4.494432e-03	1.507172e-01	1.051496e-02	9.775221e-03	2.716141e-02	4.043499e-01	1.030013e+02	3.080000e+02	1.291873e-01	1.113531e-02	1.291696e-03	1.291696e-03	1.614620e-03	2.976418e-02	2.122360e-02	1.462663e-02	9.917292e-03	6.782326e-03	7.000000e+00	1.000000e-04	4.339191e-04	5.496595e+00	3.000000e-02	1.275164e-01
25            	9.329266e-03	4.368906e-03	1.481201e-01	9.609360e-03	9.063774e-03	2.556092e-02	4.321221e-01	1.030013e+02	3.080000e+02	1.293627e-01	1.165408e-02	1.293452e-03	1.293452e-03	1.616815e-03	3.055961e-02	2.183692e-02	1.555532e-02	1.044695e-02	6.759722e-03	7.000000e+00	1.000000e-04	4.224144e-04	5.793979e+00	3.000000e-02	1.348642e-01
26            	9.093168e-03	4.252864e-03	1.446973e-01	8.850377e-03	8.461962e-03	2.385934e-02	4.603393e-01	1.030014e+02	3.080000e+02	1.295364e-01	1.217570e-02	1.295191e-03	1.295191e-03	1.618989e-03	3.133922e-02	2.243872e-02	1.652309e-02	1.093744e-02	6.739085e-03	7.000000e+00	1.000000e-04	4.102155e-04	6.096939e+00	3.000000e-02	1.420882e-01
27            	8.874206e-03	4.145257e-03	1.405231e-01	8.223332e-03	7.956341e-03	2.213953e-02	4.889273e-01	1.030014e+02	3.080000e+02	1.297081e-01	1.269726e-02	1.296910e-03	1.296910e-03	1.621138e-03	3.210352e-02	2.302932e-02	1.752409e-02	1.139246e-02	6.720253e-03	7.000000e+00	1.000000e-04	3.975076e-04	6.405324e+00	3.000000e-02	1.491478e-01
28            	8.670516e-03	4.045190e-03	1.356905e-01	7.708684e-03	7.532438e-03	2.047379e-02	5.178074e-01	1.030015e+02	3.080000e+02	1.298775e-01	1.321593e-02	1.298607e-03	1.298607e-03	1.623258e-03	3.285297e-02	2.360898e-02	1.855135e-02	1.181662e-02	6.703077e-03	7.000000e+00	1.000000e-04	3.844858e-04	6.718993e+00	3.000000e-02	1.560053e-01
29            	8.480510e-03	3.951890e-03	1.303089e-01	7.286175e-03	7.176118e-03	1.891785e-02	5.468989e-01	1.030015e+02	3.080000e+02	1.300444e-01	1.372907e-02	1.300278e-03	1.300278e-03	1.625347e-03	3.358799e-02	2.417796e-02	1.959688e-02	1.221456e-02	6.687423e-03	7.000000e+00	1.000000e-04	3.713387e-04	7.037811e+00	3.000000e-02	1.626269e-01
30            	8.302819e-03	3.864691e-03	1.245019e-01	6.937213e-03	6.874555e-03	1.750827e-02	5.761205e-01	1.030016e+02	3.080000e+02	1.302086e-01	1.423430e-02	1.301923e-03	1.301923e-03	1.627404e-03	3.430899e-02	2.473650e-02	2.065192e-02	1.259051e-02	6.673167e-03	7.000000e+00	1.000000e-04	3.582338e-04	7.361655e+00	3.000000e-02	1.689836e-01
31            	8.136258e-03	3.783010e-03	1.184021e-01	6.645962e-03	6.616759e-03	1.626311e-02	6.053917e-01	1.030016e+02	3.080000e+02	1.303699e-01	1.472948e-02	1.303539e-03	1.303539e-03	1.629424e-03	3.501633e-02	2.528484e-02	2.170724e-02	1.294804e-02	6.660197e-03	7.000000e+00	1.000000e-04	3.453093e-04	7.690409e+00	3.000000e-02	1.750515e-01
32            	7.979791e-03	3.706338e-03	1.121458e-01	6.399577e-03	6.393711e-03	1.518495e-02	6.346355e-01	1.030017e+02	3.080000e+02	1.305282e-01	1.521279e-02	1.305125e-03	1.305125e-03	1.631406e-03	3.571035e-02	2.582320e-02	2.275357e-02	1.329007e-02	6.648411e-03	7.000000e+00	1.000000e-04	3.326753e-04	8.023965e+00	3.000000e-02	1.808117e-01
33            	7.832509e-03	3.634225e-03	1.058667e-01	6.187999e-03	6.198245e-03	1.426505e-02	6.637795e-01	1.030017e+02	3.080000e+02	1.306832e-01	1.568269e-02	1.306678e-03	1.306678e-03	1.633348e-03	3.639137e-02	2.635177e-02	2.378199e-02	1.361891e-02	6.637716e-03	7.000000e+00	1.000000e-04	3.204196e-04	8.362220e+00	3.000000e-02	1.862504e-01
34            	7.693610e-03	3.566274e-03	9.968956e-02	6.003536e-03	6.024796e-03	1.348767e-02	6.927591e-01	1.030018e+02	3.080000e+02	1.308347e-01	1.613792e-02	1.308197e-03	1.308197e-03	1.635246e-03	3.705969e-02	2.687077e-02	2.478435e-02	1.393634e-02	6.628026e-03	7.000000e+00	1.000000e-04	3.086157e-04	8.705080e+00	3.000000e-02	1.913585e-01
35            	7.562384e-03	3.502133e-03	9.372437e-02	5.840395e-03	5.869103e-03	1.283373e-02	7.215187e-01	1.030018e+02	3.080000e+02	1.309826e-01	1.657753e-02	1.309680e-03	1.309680e-03	1.637100e-03	3.771560e-02	2.738038e-02	2.575367e-02	1.424373e-02	6.619265e-03	7.000000e+00	1.000000e-04	2.973285e-04	9.052453e+00	3.000000e-02	1.961317e-01
36            	7.438200e-03	3.441488e-03	8.806201e-02	5.694256e-03	5.727929e-03	1.228363e-02	7.500144e-01	1.030019e+02	3.080000e+02	1.311267e-01	1.700090e-02	1.311124e-03	1.311124e-03	1.638905e-03	3.835936e-02	2.788079e-02	2.668440e-02	1.454214e-02	6.611363e-03	7.000000e+00	1.000000e-04	2.866168e-04	9.404254e+00	3.000000e-02	2.005708e-01
37            	7.320496e-03	3.384061e-03	8.277143e-02	5.561901e-03	5.598813e-03	1.181894e-02	7.782147e-01	1.030019e+02	3.080000e+02	1.312668e-01	1.740772e-02	1.312529e-03	1.312529e-03	1.640661e-03	3.899124e-02	2.837215e-02	2.757261e-02	1.483238e-02	6.604255e-03	7.000000e+00	1.000000e-04	2.765315e-04	9.760401e+00	3.000000e-02	2.046813e-01
38            	7.208770e-03	3.329600e-03	7.789874e-02	5.440925e-03	5.479876e-03	1.142344e-02	8.061010e-01	1.030020e+02	3.080000e+02	1.314028e-01	1.779798e-02	1.313894e-03	1.313894e-03	1.642367e-03	3.961146e-02	2.885466e-02	2.841598e-02	1.511507e-02	6.597885e-03	7.000000e+00	1.000000e-04	2.671122e-04	1.012081e+01	3.000000e-02	2.084733e-01
39            	7.102575e-03	3.277883e-03	7.346822e-02	5.329512e-03	5.369665e-03	1.108342e-02	8.336668e-01	1.030021e+02	3.080000e+02	1.315347e-01	1.817198e-02	1.315217e-03	1.315217e-03	1.644021e-03	4.022028e-02	2.932845e-02	2.921371e-02	1.539072e-02	6.592201e-03	7.000000e+00	1.000000e-04	2.583843e-04	1.048541e+01	3.000000e-02	2.119609e-01
40            	7.001507e-03	3.228709e-03	6.948473e-02	5.226276e-03	5.267043e-03	1.078770e-02	8.609168e-01	1.030021e+02	3.080000e+02	1.316626e-01	1.853027e-02	1.316500e-03	1.316500e-03	1.645625e-03	4.081790e-02	2.979370e-02	2.996634e-02	1.565973e-02	6.587155e-03	7.000000e+00	1.000000e-04	2.503559e-04	1.085413e+01	3.000000e-02	2.151615e-01
41            	6.905207e-03	3.181899e-03	6.593714e-02	5.130139e-03	5.171102e-03	1.052736e-02	8.878643e-01	1.030022e+02	3.080000e+02	1.317864e-01	1.887356e-02	1.317742e-03	1.317742e-03	1.647178e-03	4.140455e-02	3.025055e-02	3.067550e-02	1.592244e-02	6.582706e-03	7.000000e+00	1.000000e-04	2.430180e-04	1.122688e+01	3.000000e-02	2.180951e-01
42            	6.813350e-03	3.137290e-03	6.280216e-02	5.040244e-03	5.081109e-03	1.029540e-02	9.145294e-01	1.030022e+02	3.080000e+02	1.319063e-01	1.920274e-02	1.318945e-03	1.318945e-03	1.648681e-03	4.198043e-02	3.069914e-02	3.134359e-02	1.617913e-02	6.578816e-03	7.000000e+00	1.000000e-04	2.363461e-04	1.160361e+01	3.000000e-02	2.207828e-01
43            	6.725642e-03	3.094735e-03	6.004826e-02	4.955903e-03	4.996456e-03	1.008640e-02	9.409363e-01	1.030023e+02	3.080000e+02	1.320225e-01	1.951875e-02	1.320110e-03	1.320110e-03	1.650137e-03	4.254574e-02	3.113963e-02	3.197354e-02	1.643005e-02	6.575452e-03	7.000000e+00	1.000000e-04	2.303026e-04	1.198423e+01	3.000000e-02	2.232464e-01
44            	6.641820e-03	3.054102e-03	5.763908e-02	4.876547e-03	4.916635e-03	9.896211e-03	9.671119e-01	1.030023e+02	3.080000e+02	1.321350e-01	1.982258e-02	1.321239e-03	1.321239e-03	1.651548e-03	4.310068e-02	3.157215e-02	3.256854e-02	1.667541e-02	6.572582e-03	7.000000e+00	1.000000e-04	2.248410e-04	1.236869e+01	3.000000e-02	2.255076e-01
45            	6.561641e-03	3.015269e-03	5.553639e-02	4.801700e-03	4.841214e-03	9.721622e-03	9.930834e-01	1.030024e+02	3.080000e+02	1.322440e-01	2.011517e-02	1.322332e-03	1.322332e-03	1.652916e-03	4.364544e-02	3.199685e-02	3.313185e-02	1.691542e-02	6.570181e-03	7.000000e+00	1.000000e-04	2.199091e-04	1.275691e+01	3.000000e-02	2.275868e-01
46            	6.484885e-03	2.978126e-03	5.370226e-02	4.730957e-03	4.769818e-03	9.560181e-03	1.018877e+00	1.030024e+02	3.080000e+02	1.323498e-01	2.039746e-02	1.323394e-03	1.323394e-03	1.654242e-03	4.418021e-02	3.241386e-02	3.366665e-02	1.715024e-02	6.568221e-03	7.000000e+00	1.000000e-04	2.154530e-04	1.314883e+01	3.000000e-02	2.295033e-01
47            	6.411350e-03	2.942573e-03	5.210067e-02	4.663970e-03	4.702123e-03	9.409985e-03	1.044519e+00	1.030025e+02	3.080000e+02	1.324526e-01	2.067030e-02	1.324424e-03	1.324424e-03	1.655530e-03	4.470517e-02	3.282331e-02	3.417592e-02	1.738004e-02	6.566683e-03	7.000000e+00	1.000000e-04	2.114192e-04	1.354439e+01	3.000000e-02	2.312749e-01
48            	6.340850e-03	2.908515e-03	5.069852e-02	4.600435e-03	4.637841e-03	9.269550e-03	1.070030e+00	1.030025e+02	3.080000e+02	1.325524e-01	2.093446e-02	1.325426e-03	1.325426e-03	1.656782e-03	4.522051e-02	3.322534e-02	3.466239e-02	1.760497e-02	6.565544e-03	7.000000e+00	1.000000e-04	2.077571e-04	1.394352e+01	3.000000e-02	2.329173e-01
49            	6.273215e-03	2.875866e-03	4.946614e-02	4.540085e-03	4.576720e-03	9.137698e-03	1.095432e+00	1.030026e+02	3.080000e+02	1.326496e-01	2.119065e-02	1.326400e-03	1.326400e-03	1.658000e-03	4.572640e-02	3.362009e-02	3.512850e-02	1.782517e-02	6.564787e-03	7.000000e+00	1.000000e-04	2.044200e-04	1.434616e+01	3.000000e-02	2.344448e-01
50            	6.208285e-03	2.844548e-03	4.837748e-02	4.482683e-03	4.518532e-03	9.013483e-03	1.120741e+00	1.030027e+02	3.080000e+02	1.327443e-01	2.143949e-02	1.327349e-03	1.327349e-03	1.659186e-03	4.622302e-02	3.400767e-02	3.557640e-02	1.804077e-02	6.564394e-03	7.000000e+00	1.000000e-04	2.013657e-04	1.475225e+01	3.000000e-02	2.358698e-01
51            	6.145914e-03	2.814487e-03	4.741005e-02	4.428018e-03	4.463072e-03	8.896132e-03	1.145974e+00	1.030027e+02	3.080000e+02	1.328365e-01	2.168151e-02	1.328274e-03	1.328274e-03	1.660342e-03	4.671053e-02	3.438823e-02	3.600796e-02	1.825190e-02	6.564351e-03	7.000000e+00	1.000000e-04	1.985571e-04	1.516174e+01	3.000000e-02	2.372033e-01
52            	6.085965e-03	2.785615e-03	4.654472e-02	4.375897e-03	4.410156e-03	8.785004e-03	1.171144e+00	1.030028e+02	3.080000e+02	1.329265e-01	2.191718e-02	1.329176e-03	1.329176e-03	1.661470e-03	4.718912e-02	3.476187e-02	3.642478e-02	1.845869e-02	6.564641e-03	7.000000e+00	1.000000e-04	1.959619e-04	1.557456e+01	3.000000e-02	2.384546e-01
53            	6.028311e-03	2.757867e-03	4.576534e-02	4.326151e-03	4.359617e-03	8.679554e-03	1.196260e+00	1.030028e+02	3.080000e+02	1.330144e-01	2.214691e-02	1.330057e-03	1.330057e-03	1.662571e-03	4.765893e-02	3.512874e-02	3.682823e-02	1.866123e-02	6.565253e-03	7.000000e+00	1.000000e-04	1.935524e-04	1.599065e+01	3.000000e-02	2.396319e-01
54            	5.972832e-03	2.731184e-03	4.505845e-02	4.278623e-03	4.311303e-03	8.579318e-03	1.221333e+00	1.030029e+02	3.080000e+02	1.331002e-01	2.237105e-02	1.330917e-03	1.330917e-03	1.663647e-03	4.812015e-02	3.548895e-02	3.721948e-02	1.885964e-02	6.566174e-03	7.000000e+00	1.000000e-04	1.913048e-04	1.640996e+01	3.000000e-02	2.407424e-01
55            	5.919418e-03	2.705512e-03	4.441288e-02	4.233170e-03	4.265074e-03	8.483891e-03	1.246370e+00	1.030029e+02	3.080000e+02	1.331842e-01	2.258992e-02	1.331759e-03	1.331759e-03	1.664698e-03	4.857293e-02	3.584262e-02	3.759950e-02	1.905403e-02	6.567393e-03	7.000000e+00	1.000000e-04	1.891990e-04	1.683244e+01	3.000000e-02	2.417922e-01
56            	5.867965e-03	2.680798e-03	4.381943e-02	4.189664e-03	4.220803e-03	8.392917e-03	1.271376e+00	1.030030e+02	3.080000e+02	1.332663e-01	2.280377e-02	1.332581e-03	1.332581e-03	1.665727e-03	4.901742e-02	3.618987e-02	3.796914e-02	1.924449e-02	6.568897e-03	7.000000e+00	1.000000e-04	1.872182e-04	1.725802e+01	3.000000e-02	2.427865e-01
57            	5.818376e-03	2.656994e-03	4.327051e-02	4.147986e-03	4.178373e-03	8.306081e-03	1.296358e+00	1.030030e+02	3.080000e+02	1.333466e-01	2.301283e-02	1.333387e-03	1.333387e-03	1.666733e-03	4.945378e-02	3.653082e-02	3.832908e-02	1.943113e-02	6.570678e-03	7.000000e+00	1.000000e-04	1.853481e-04	1.768667e+01	3.000000e-02	2.437301e-01
58            	5.770559e-03	2.634055e-03	4.275992e-02	4.108027e-03	4.137676e-03	8.223101e-03	1.321319e+00	1.030031e+02	3.080000e+02	1.334253e-01	2.321732e-02	1.334175e-03	1.334175e-03	1.667719e-03	4.988217e-02	3.686558e-02	3.867995e-02	1.961402e-02	6.572726e-03	7.000000e+00	1.000000e-04	1.835768e-04	1.811832e+01	3.000000e-02	2.446270e-01
59            	5.724430e-03	2.611938e-03	4.228256e-02	4.069685e-03	4.098612e-03	8.143722e-03	1.346262e+00	1.030032e+02	3.080000e+02	1.335023e-01	2.341740e-02	1.334947e-03	1.334947e-03	1.668684e-03	5.030273e-02	3.719426e-02	3.902223e-02	1.979327e-02	6.575032e-03	7.000000e+00	1.000000e-04	1.818942e-04	1.855292e+01	3.000000e-02	2.454807e-01
60            	5.679907e-03	2.590605e-03	4.183425e-02	4.032870e-03	4.061090e-03	8.067715e-03	1.371192e+00	1.030032e+02	3.080000e+02	1.335778e-01	2.361324e-02	1.335703e-03	1.335703e-03	1.669629e-03	5.071561e-02	3.751698e-02	3.935639e-02	1.996895e-02	6.577588e-03	7.000000e+00	1.000000e-04	1.802918e-04	1.899042e+01	3.000000e-02	2.462943e-01
61            	5.636916e-03	2.570016e-03	4.141155e-02	3.997496e-03	4.025025e-03	7.994870e-03	1.396108e+00	1.030033e+02	3.080000e+02	1.336518e-01	2.380498e-02	1.336444e-03	1.336444e-03	1.670555e-03	5.112094e-02	3.783385e-02	3.968279e-02	2.014115e-02	6.580385e-03	7.000000e+00	1.000000e-04	1.787623e-04	1.943078e+01	3.000000e-02	2.470708e-01
62            	5.595386e-03	2.550138e-03	4.101161e-02	3.963483e-03	3.990338e-03	7.924996e-03	1.421015e+00	1.030033e+02	3.080000e+02	1.337242e-01	2.399275e-02	1.337170e-03	1.337170e-03	1.671463e-03	5.151888e-02	3.814496e-02	4.000178e-02	2.030995e-02	6.583417e-03	7.000000e+00	1.000000e-04	1.772997e-04	1.987395e+01	3.000000e-02	2.478125e-01
63            	5.555250e-03	2.530937e-03	4.063208e-02	3.930758e-03	3.956955e-03	7.857919e-03	1.445913e+00	1.030034e+02	3.080000e+02	1.337953e-01	2.417668e-02	1.337882e-03	1.337882e-03	1.672353e-03	5.190956e-02	3.845043e-02	4.031365e-02	2.047543e-02	6.586675e-03	7.000000e+00	1.000000e-04	1.758986e-04	2.031987e+01	3.000000e-02	2.485217e-01
64            	5.516446e-03	2.512383e-03	4.027097e-02	3.899253e-03	3.924810e-03	7.793477e-03	1.470803e+00	1.030034e+02	3.080000e+02	1.338649e-01	2.435686e-02	1.338580e-03	1.338580e-03	1.673225e-03	5.229311e-02	3.875036e-02	4.061866e-02	2.063765e-02	6.590154e-03	7.000000e+00	1.000000e-04	1.745544e-04	2.076851e+01	3.000000e-02	2.492006e-01
65            	5.478914e-03	2.494447e-03	3.992662e-02	3.868905e-03	3.893837e-03	7.731522e-03	1.495687e+00	1.030035e+02	3.080000e+02	1.339332e-01	2.453341e-02	1.339264e-03	1.339264e-03	1.674080e-03	5.266967e-02	3.904485e-02	4.091705e-02	2.079670e-02	6.593847e-03	7.000000e+00	1.000000e-04	1.732633e-04	2.121981e+01	3.000000e-02	2.498508e-01
66            	5.442599e-03	2.477100e-03	3.959761e-02	3.839655e-03	3.863979e-03	7.671918e-03	1.520565e+00	1.030035e+02	3.080000e+02	1.340002e-01	2.470642e-02	1.339935e-03	1.339935e-03	1.674919e-03	5.303937e-02	3.933400e-02	4.120904e-02	2.095264e-02	6.597748e-03	7.000000e+00	1.000000e-04	1.720216e-04	2.167374e+01	3.000000e-02	2.504743e-01
67            	5.407447e-03	2.460318e-03	3.928275e-02	3.811449e-03	3.835180e-03	7.614538e-03	1.545438e+00	1.030036e+02	3.080000e+02	1.340659e-01	2.487597e-02	1.340593e-03	1.340593e-03	1.675742e-03	5.340233e-02	3.961791e-02	4.149482e-02	2.110554e-02	6.601851e-03	7.000000e+00	1.000000e-04	1.708264e-04	2.213024e+01	3.000000e-02	2.510724e-01
68            	5.373411e-03	2.444075e-03	3.898098e-02	3.784234e-03	3.807389e-03	7.559266e-03	1.570307e+00	1.030037e+02	3.080000e+02	1.341303e-01	2.504216e-02	1.341239e-03	1.341239e-03	1.676549e-03	5.375868e-02	3.989667e-02	4.177458e-02	2.125547e-02	6.606151e-03	7.000000e+00	1.000000e-04	1.696748e-04	2.258928e+01	3.000000e-02	2.516468e-01
69            	5.340442e-03	2.428349e-03	3.869138e-02	3.757963e-03	3.780558e-03	7.505992e-03	1.595173e+00	1.030037e+02	3.080000e+02	1.341935e-01	2.520507e-02	1.341872e-03	1.341872e-03	1.677340e-03	5.410854e-02	4.017037e-02	4.204849e-02	2.140249e-02	6.610642e-03	7.000000e+00	1.000000e-04	1.685644e-04	2.305080e+01	3.000000e-02	2.521986e-01
70            	5.308496e-03	2.413117e-03	3.841316e-02	3.732591e-03	3.754640e-03	7.454615e-03	1.620035e+00	1.030038e+02	3.080000e+02	1.342554e-01	2.536476e-02	1.342493e-03	1.342493e-03	1.678116e-03	5.445203e-02	4.043912e-02	4.231671e-02	2.154666e-02	6.615319e-03	7.000000e+00	1.000000e-04	1.674930e-04	2.351478e+01	3.000000e-02	2.527292e-01
71            	5.277531e-03	2.398360e-03	3.814560e-02	3.708077e-03	3.729595e-03	7.405042e-03	1.644894e+00	1.030038e+02	3.080000e+02	1.343162e-01	2.552133e-02	1.343102e-03	1.343102e-03	1.678878e-03	5.478927e-02	4.070299e-02	4.257939e-02	2.168805e-02	6.620178e-03	7.000000e+00	1.000000e-04	1.664584e-04	2.398117e+01	3.000000e-02	2.532398e-01
72            	5.247509e-03	2.384058e-03	3.788805e-02	3.684380e-03	3.705382e-03	7.357183e-03	1.669751e+00	1.030039e+02	3.080000e+02	1.343759e-01	2.567483e-02	1.343700e-03	1.343700e-03	1.679625e-03	5.512038e-02	4.096208e-02	4.283668e-02	2.182671e-02	6.625215e-03	7.000000e+00	1.000000e-04	1.654589e-04	2.444993e+01	3.000000e-02	2.537315e-01
73            	5.218390e-03	2.370192e-03	3.763996e-02	3.661464e-03	3.681964e-03	7.310958e-03	1.694605e+00	1.030039e+02	3.080000e+02	1.344344e-01	2.582533e-02	1.344286e-03	1.344286e-03	1.680358e-03	5.544546e-02	4.121647e-02	4.308871e-02	2.196270e-02	6.630424e-03	7.000000e+00	1.000000e-04	1.644927e-04	2.492102e+01	3.000000e-02	2.542052e-01
74            	5.190139e-03	2.356745e-03	3.740079e-02	3.639294e-03	3.659305e-03	7.266289e-03	1.719458e+00	1.030040e+02	3.080000e+02	1.344918e-01	2.597291e-02	1.344861e-03	1.344861e-03	1.681077e-03	5.576463e-02	4.146625e-02	4.333561e-02	2.209607e-02	6.635802e-03	7.000000e+00	1.000000e-04	1.635582e-04	2.539440e+01	3.000000e-02	2.546619e-01
75            	5.162723e-03	2.343700e-03	3.717007e-02	3.617837e-03	3.637373e-03	7.223105e-03	1.744309e+00	1.030041e+02	3.080000e+02	1.345482e-01	2.611763e-02	1.345426e-03	1.345426e-03	1.681782e-03	5.607800e-02	4.171151e-02	4.357751e-02	2.222688e-02	6.641345e-03	7.000000e+00	1.000000e-04	1.626540e-04	2.587004e+01	3.000000e-02	2.551025e-01
76            	5.136109e-03	2.331042e-03	3.694736e-02	3.597062e-03	3.616137e-03	7.181338e-03	1.769158e+00	1.030041e+02	3.080000e+02	1.346034e-01	2.625955e-02	1.345980e-03	1.345980e-03	1.682475e-03	5.638567e-02	4.195232e-02	4.381452e-02	2.235519e-02	6.647048e-03	7.000000e+00	1.000000e-04	1.617786e-04	2.634789e+01	3.000000e-02	2.555280e-01
77            	5.110267e-03	2.318756e-03	3.673226e-02	3.576941e-03	3.595567e-03	7.140924e-03	1.794005e+00	1.030042e+02	3.080000e+02	1.346577e-01	2.639872e-02	1.346523e-03	1.346523e-03	1.683154e-03	5.668775e-02	4.218878e-02	4.404677e-02	2.248104e-02	6.652909e-03	7.000000e+00	1.000000e-04	1.609308e-04	2.682792e+01	3.000000e-02	2.559390e-01
78            	5.085168e-03	2.306827e-03	3.652439e-02	3.557446e-03	3.575635e-03	7.101804e-03	1.818852e+00	1.030042e+02	3.080000e+02	1.347109e-01	2.653521e-02	1.347056e-03	1.347056e-03	1.683820e-03	5.698435e-02	4.242094e-02	4.427436e-02	2.260449e-02	6.658924e-03	7.000000e+00	1.000000e-04	1.601095e-04	2.731010e+01	3.000000e-02	2.563364e-01
79            	5.060783e-03	2.295242e-03	3.632343e-02	3.538551e-03	3.556315e-03	7.063923e-03	1.843697e+00	1.030043e+02	3.080000e+02	1.347632e-01	2.666908e-02	1.347580e-03	1.347580e-03	1.684475e-03	5.727555e-02	4.264891e-02	4.449741e-02	2.272558e-02	6.665089e-03	7.000000e+00	1.000000e-04	1.593134e-04	2.779438e+01	3.000000e-02	2.567207e-01
80            	5.037088e-03	2.283988e-03	3.612903e-02	3.520231e-03	3.537582e-03	7.027227e-03	1.868541e+00	1.030043e+02	3.080000e+02	1.348144e-01	2.680038e-02	1.348093e-03	1.348093e-03	1.685117e-03	5.756147e-02	4.287274e-02	4.471601e-02	2.284436e-02	6.671402e-03	7.000000e+00	1.000000e-04	1.585415e-04	2.828075e+01	3.000000e-02	2.570929e-01
81            	5.014056e-03	2.273053e-03	3.594091e-02	3.502463e-03	3.519412e-03	6.991667e-03	1.893384e+00	1.030044e+02	3.080000e+02	1.348647e-01	2.692915e-02	1.348597e-03	1.348597e-03	1.685747e-03	5.784220e-02	4.309252e-02	4.493026e-02	2.296088e-02	6.677859e-03	7.000000e+00	1.000000e-04	1.577929e-04	2.876915e+01	3.000000e-02	2.574533e-01
82            	4.991663e-03	2.262425e-03	3.575878e-02	3.485226e-03	3.501784e-03	6.957195e-03	1.918226e+00	1.030045e+02	3.080000e+02	1.349141e-01	2.705547e-02	1.349092e-03	1.349092e-03	1.686365e-03	5.811783e-02	4.330832e-02	4.514027e-02	2.307519e-02	6.684457e-03	7.000000e+00	1.000000e-04	1.570665e-04	2.925956e+01	3.000000e-02	2.578027e-01
83            	4.969888e-03	2.252094e-03	3.558239e-02	3.468499e-03	3.484676e-03	6.923767e-03	1.943067e+00	1.030045e+02	3.080000e+02	1.349625e-01	2.717937e-02	1.349577e-03	1.349577e-03	1.686972e-03	5.838846e-02	4.352021e-02	4.534613e-02	2.318732e-02	6.691193e-03	7.000000e+00	1.000000e-04	1.563615e-04	2.975195e+01	3.000000e-02	2.581417e-01
84            	4.948708e-03	2.242049e-03	3.541147e-02	3.452261e-03	3.468068e-03	6.891341e-03	1.967907e+00	1.030046e+02	3.080000e+02	1.350101e-01	2.730091e-02	1.350054e-03	1.350054e-03	1.687567e-03	5.865417e-02	4.372826e-02	4.554793e-02	2.329733e-02	6.698066e-03	7.000000e+00	1.000000e-04	1.556771e-04	3.024628e+01	3.000000e-02	2.584706e-01
85            	4.928103e-03	2.232278e-03	3.524582e-02	3.436494e-03	3.451941e-03	6.859878e-03	1.992746e+00	1.030046e+02	3.080000e+02	1.350568e-01	2.742013e-02	1.350521e-03	1.350521e-03	1.688152e-03	5.891507e-02	4.393255e-02	4.574575e-02	2.340525e-02	6.705071e-03	7.000000e+00	1.000000e-04	1.550124e-04	3.074252e+01	3.000000e-02	2.587902e-01
86            	4.908052e-03	2.222774e-03	3.508519e-02	3.421181e-03	3.436277e-03	6.829340e-03	2.017585e+00	1.030047e+02	3.080000e+02	1.351026e-01	2.753708e-02	1.350980e-03	1.350980e-03	1.688725e-03	5.917123e-02	4.413313e-02	4.593970e-02	2.351112e-02	6.712207e-03	7.000000e+00	1.000000e-04	1.543668e-04	3.124065e+01	3.000000e-02	2.591007e-01
87            	4.888538e-03	2.213527e-03	3.492940e-02	3.406304e-03	3.421059e-03	6.799690e-03	2.042423e+00	1.030047e+02	3.080000e+02	1.351475e-01	2.765181e-02	1.351431e-03	1.351431e-03	1.689288e-03	5.942274e-02	4.433009e-02	4.612983e-02	2.361500e-02	6.719472e-03	7.000000e+00	1.000000e-04	1.537394e-04	3.174062e+01	3.000000e-02	2.594028e-01